 VARIABLES = "X", "Y", "P", "GradPx","GradPy","GradPErrorX","GradPErrorY", "Vx", "Vy"
  ,  "divV", "divVError","rotV", "rotVError", "LapP", "LapPError" 
 ZONE I=          61 , J=          61 , DATAPACKING=BLOCK, VARLOCATION=([3-15]=CELLCENTERED)
     1.0000000     0.9664603     0.9328414     0.8990920     0.8653651     0.8315766     0.7978151     0.7640086     0.7302011     0.6963750     0.6625166     0.6286564     0.5947885     0.5609158     0.5270001     0.4930862     0.4591304     0.4251913     0.3912105     0.3572489     0.3232523     0.2892354     0.2552629     0.2212724     0.1873517     0.1534541     0.1197126     0.0861583     0.0531092     0.0213915     0.0000001     0.0213915     0.0531092     0.0861583     0.1197126     0.1534541     0.1873517     0.2212724     0.2552629     0.2892354     0.3232523     0.3572489     0.3912105     0.4251913     0.4591304     0.4930862     0.5270001     0.5609158     0.5947885     0.6286564     0.6625166     0.6963750     0.7302011     0.7640086     0.7978151     0.8315766     0.8653651     0.8991239     0.9328414     0.9664603     1.0000000     1.0029660     0.9694195     0.9357576     0.9019302     0.8680907     0.8341567     0.8002185     0.7662060     0.7321657     0.6980827     0.6639461     0.6297898     0.5956109     0.5614161     0.5271710     0.4929237     0.4586346     0.4243659     0.3900631     0.3557907     0.3214979     0.2872029     0.2529735     0.2187503     0.1846236     0.1505493     0.1166623     0.0829955     0.0498680     0.0181068    -0.0032956     0.0181068     0.0498680     0.0829955     0.1166623     0.1505493     0.1846236     0.2187503     0.2529735
     0.2872029     0.3214979     0.3557907     0.3900631     0.4243659     0.4586346     0.4929237     0.5271710     0.5614161     0.5956109     0.6297898     0.6639461     0.6980827     0.7321657     0.7662060     0.8002185     0.8341567     0.8680907     0.9019620     0.9357576     0.9694195     1.0029660     1.0062280     0.9726737     0.9389647     0.9050512     0.8710881     0.8369941     0.8028615     0.7686225     0.7343262     0.6999606     0.6655182     0.6310360     0.5965153     0.5619664     0.5273588     0.4927450     0.4580893     0.4234582     0.3888013     0.3541870     0.3195685     0.2849677     0.2504558     0.2159767     0.1816235     0.1473549     0.1133079     0.0795173     0.0463036     0.0144945    -0.0069200     0.0144945     0.0463036     0.0795173     0.1133079     0.1473549     0.1816235     0.2159767     0.2504558     0.2849677     0.3195685     0.3541870     0.3888013     0.4234582     0.4580893     0.4927450     0.5273588     0.5619664     0.5965153     0.6310360     0.6655182     0.6999606     0.7343262     0.7686225     0.8028615     0.8369941     0.8710881     0.9050831     0.9389647     0.9726737     1.0062280     1.0098170     0.9762545     0.9424936     0.9084856     0.8743863     0.8401163     0.8057698     0.7712815     0.7367036     0.7020271     0.6672480     0.6324075     0.5975105     0.5625718     0.5275655     0.4925483     0.4574893
     0.4224595     0.3874129     0.3524224     0.3174456     0.2825082     0.2476855     0.2129247     0.1783224     0.1438399     0.1096169     0.0756900     0.0423815     0.0105197    -0.0109081     0.0105197     0.0423815     0.0756900     0.1096169     0.1438399     0.1783224     0.2129247     0.2476855     0.2825082     0.3174455     0.3524224     0.3874129     0.4224595     0.4574893     0.4925483     0.5275655     0.5625718     0.5975105     0.6324074     0.6672480     0.7020271     0.7367035     0.7712815     0.8057698     0.8401163     0.8743863     0.9085174     0.9424936     0.9762545     1.0098170     1.0137640     0.9801921     0.9463741     0.9122621     0.8780131     0.8435495     0.8089678     0.7742055     0.7393178     0.7042994     0.6691502     0.6339155     0.5986049     0.5632377     0.5277928     0.4923321     0.4568296     0.4213613     0.3858862     0.3504820     0.3151111     0.2798037     0.2446391     0.2095686     0.1746923     0.1399747     0.1055581     0.0714814     0.0380685     0.0061489    -0.0152935     0.0061489     0.0380685     0.0714814     0.1055581     0.1399747     0.1746923     0.2095686     0.2446391     0.2798037     0.3151111     0.3504821     0.3858862     0.4213613     0.4568296     0.4923321     0.5277928     0.5632377     0.5986049     0.6339155     0.6691502     0.7042994     0.7393178     0.7742055     0.8089678     0.8435495
     0.8780131     0.9122939     0.9463741     0.9801921     1.0137640     1.0181060     0.9845238     0.9506431     0.9164166     0.8820029     0.8473263     0.8124859     0.7774222     0.7421936     0.7067991     0.6712428     0.6355745     0.5998087     0.5639701     0.5280428     0.4920942     0.4561038     0.4201531     0.3842067     0.3483475     0.3125429     0.2768284     0.2412878     0.2058767     0.1706989     0.1357226     0.1010930     0.0668516     0.0333239     0.0013406    -0.0201179     0.0013406     0.0333239     0.0668516     0.1010930     0.1357226     0.1706989     0.2058767     0.2412878     0.2768284     0.3125429     0.3483475     0.3842067     0.4201531     0.4561038     0.4920942     0.5280428     0.5639701     0.5998087     0.6355745     0.6712428     0.7067991     0.7421936     0.7774221     0.8124859     0.8473263     0.8820029     0.9164484     0.9506431     0.9845238     1.0181060     1.0228820     0.9892885     0.9553387     0.9209864     0.8863915     0.8514808     0.8163558     0.7809603     0.7453570     0.7095488     0.6735445     0.6373993     0.6011329     0.5647758     0.5283179     0.4918325     0.4553055     0.4188241     0.3823592     0.3459994     0.3097181     0.2735558     0.2376015     0.2018156     0.1663063     0.1310455     0.0961816     0.0617589     0.0281051    -0.0039483    -0.0254246    -0.0039483     0.0281051     0.0617589
     0.0961816     0.1310455     0.1663063     0.2018156     0.2376015     0.2735558     0.3097180     0.3459994     0.3823592     0.4188241     0.4553055     0.4918325     0.5283179     0.5647757     0.6011329     0.6373993     0.6735445     0.7095488     0.7453570     0.7809603     0.8163557     0.8514807     0.8863915     0.9210182     0.9553387     0.9892885     1.0228820     1.0281360     0.9945303     0.9605045     0.9260138     0.8912196     0.8560511     0.8206130     0.7848527     0.7488371     0.7125737     0.6760767     0.6394068     0.6025897     0.5656621     0.5286204     0.4915447     0.4544272     0.4173621     0.3803268     0.3434164     0.3066104     0.2699555     0.2335461     0.1973480     0.1614740     0.1259001     0.0907785     0.0561564     0.0223637    -0.0097668    -0.0312625    -0.0097668     0.0223637     0.0561564     0.0907785     0.1259001     0.1614740     0.1973480     0.2335461     0.2699555     0.3066104     0.3434164     0.3803268     0.4173621     0.4544272     0.4915447     0.5286204     0.5656620     0.6025897     0.6394067     0.6760767     0.7125736     0.7488371     0.7848527     0.8206130     0.8560511     0.8912196     0.9260455     0.9605045     0.9945303     1.0281360     1.0339150     1.0002950     0.9661861     0.9315431     0.8965297     0.8610778     0.8252953     0.7891338     0.7526646     0.7159007     0.6788618     0.6416147
     0.6041920     0.5666369     0.5289532     0.4912281     0.4534612     0.4157541     0.3780914     0.3405754     0.3031924     0.2659956     0.2290858     0.1924343     0.1561591     0.1202409     0.0848358     0.0499945     0.0160490    -0.0161662    -0.0376834    -0.0161662     0.0160490     0.0499945     0.0848358     0.1202409     0.1561591     0.1924343     0.2290858     0.2659956     0.3031924     0.3405754     0.3780914     0.4157541     0.4534612     0.4912281     0.5289532     0.5666369     0.6041920     0.6416147     0.6788617     0.7159006     0.7526646     0.7891338     0.8252953     0.8610778     0.8965297     0.9315748     0.9661861     1.0002950     1.0339150     1.0402730     1.0066380     0.9724371     0.9376265     0.9023719     0.8666083     0.8304469     0.7938440     0.7568758     0.7195610     0.6819259     0.6440440     0.6059548     0.5677094     0.5293193     0.4908797     0.4523984     0.4139850     0.3756320     0.3374497     0.2994319     0.2616390     0.2241785     0.1870281     0.1503115     0.1140146     0.0782977     0.0432150     0.0091015    -0.0232070    -0.0447478    -0.0232070     0.0091015     0.0432150     0.0782977     0.1140146     0.1503115     0.1870281     0.2241785     0.2616390     0.2994318     0.3374497     0.3756321     0.4139850     0.4523984     0.4908797     0.5293193     0.5677094     0.6059548     0.6440439     0.6819259
     0.7195610     0.7568757     0.7938439     0.8304468     0.8666082     0.9023719     0.9376583     0.9724371     1.0066380     1.0402730     1.0472650     1.0136140     0.9793113     0.9443166     0.9087968     0.8726901     0.8361121     0.7990237     0.7615067     0.7235864     0.6852956     0.6467154     0.6078934     0.5688888     0.5297220     0.4904967     0.4512297     0.4120395     0.3729275     0.3340123     0.2952964     0.2568479     0.2187819     0.1810829     0.1438810     0.1071675     0.0711076     0.0357596     0.0014613    -0.0309498    -0.0525165    -0.0309498     0.0014613     0.0357596     0.0711076     0.1071675     0.1438809     0.1810829     0.2187819     0.2568479     0.2952963     0.3340123     0.3729275     0.4120395     0.4512297     0.4904967     0.5297220     0.5688888     0.6078933     0.6467153     0.6852956     0.7235863     0.7615067     0.7990237     0.8361121     0.8726901     0.9087968     0.9443483     0.9793113     1.0136140     1.0472650     1.0549570     1.0212880     0.9868741     0.9516766     0.9158651     0.8793811     0.8423447     0.8047222     0.7666016     0.7280149     0.6890028     0.6496544     0.6100262     0.5701864     0.5301650     0.4900752     0.4499439     0.4098991     0.3699520     0.3302307     0.2907467     0.2515771     0.2128448     0.1745423     0.1368063     0.0996346     0.0631974     0.0275575    -0.0069441
    -0.0394680    -0.0610633    -0.0394680    -0.0069441     0.0275575     0.0631974     0.0996346     0.1368063     0.1745423     0.2128448     0.2515771     0.2907467     0.3302307     0.3699520     0.4098991     0.4499439     0.4900752     0.5301649     0.5701864     0.6100261     0.6496543     0.6890027     0.7280148     0.7666016     0.8047222     0.8423447     0.8793811     0.9158650     0.9517083     0.9868741     1.0212880     1.0549570     1.0634180     1.0297290     0.9951928     0.9597723     0.9236398     0.8867410     0.8492004     0.8109904     0.7722057     0.7328860     0.6930805     0.6528872     0.6123721     0.5716137     0.5306522     0.4896117     0.4485296     0.4075448     0.3666791     0.3260711     0.2857423     0.2457793     0.2063143     0.1673479     0.1290246     0.0913488     0.0544965     0.0185355    -0.0161897    -0.0488377    -0.0704644    -0.0488377    -0.0161897     0.0185355     0.0544965     0.0913487     0.1290246     0.1673479     0.2063143     0.2457793     0.2857422     0.3260711     0.3666791     0.4075448     0.4485296     0.4896117     0.5306522     0.5716137     0.6123720     0.6528871     0.6930804     0.7328860     0.7722057     0.8109903     0.8492003     0.8867409     0.9236398     0.9598039     0.9951928     1.0297290     1.0634180     1.0727250     1.0390140     1.0043430     0.9686776     0.9321921     0.8948367     0.8567415
     0.8178853     0.7783701     0.7382443     0.6975659     0.6564432     0.6149526     0.5731837     0.5311882     0.4891018     0.4469739     0.4049551     0.3630790     0.3214955     0.2802374     0.2394019     0.1991307     0.1594342     0.1204647     0.0822344     0.0449256     0.0086114    -0.0263598    -0.0591443    -0.0808055    -0.0591443    -0.0263598     0.0086114     0.0449256     0.0822344     0.1204647     0.1594341     0.1991307     0.2394019     0.2802374     0.3214955     0.3630790     0.4049551     0.4469739     0.4891018     0.5311881     0.5731837     0.6149526     0.6564431     0.6975659     0.7382442     0.7783701     0.8178852     0.8567414     0.8948367     0.9321920     0.9687092     1.0043430     1.0390140     1.0727250     1.0829630     1.0492270     1.0144090     0.9784734     0.9415996     0.9037421     0.8650368     0.8254697     0.7851511     0.7441384     0.7025000     0.6603549     0.6177912     0.5749107     0.5317777     0.4885409     0.4452626     0.4021063     0.3591188     0.3164624     0.2741820     0.2323866     0.1912288     0.1507289     0.1110487     0.0722085     0.0343975    -0.0023052    -0.0375470    -0.0704817    -0.0921809    -0.0704817    -0.0375470    -0.0023052     0.0343975     0.0722085     0.1110487     0.1507289     0.1912287     0.2323866     0.2741820     0.3164624     0.3591188     0.4021063     0.4452626     0.4885409
     0.5317777     0.5749106     0.6177911     0.6603548     0.7024999     0.7441384     0.7851511     0.8254697     0.8650367     0.9037421     0.9415995     0.9785050     1.0144090     1.0492270     1.0829630     1.0942250     1.0604630     1.0254810     0.9892491     0.9519480     0.9135382     0.8741618     0.8338128     0.7926103     0.7506220     0.7079275     0.6646578     0.6209137     0.5768105     0.5324263     0.4879239     0.4433801     0.3989726     0.3547625     0.3109258     0.2675210     0.2246696     0.1825364     0.1411530     0.1006909     0.0611798     0.0228164    -0.0143137    -0.0498531    -0.0829531    -0.1046940    -0.0829531    -0.0498531    -0.0143137     0.0228164     0.0611797     0.1006909     0.1411529     0.1825364     0.2246696     0.2675209     0.3109258     0.3547625     0.3989726     0.4433801     0.4879239     0.5324262     0.5768104     0.6209136     0.6646577     0.7079275     0.7506220     0.7926103     0.8338127     0.8741618     0.9135382     0.9519480     0.9892806     1.0254810     1.0604630     1.0942250     1.1066130     1.0728220     1.0376610     1.0011030     0.9633318     0.9243144     0.8841997     0.8429905     0.8008158     0.7577543     0.7138981     0.6693912     0.6243486     0.5789003     0.5331397     0.4872451     0.4413092     0.3955255     0.3499704     0.3048353     0.2601935     0.2161807     0.1729745     0.1306190
     0.0892969     0.0490477     0.0100767    -0.0275236    -0.0633904    -0.0966720    -0.1184590    -0.0966720    -0.0633904    -0.0275236     0.0100767     0.0490477     0.0892969     0.1306190     0.1729745     0.2161807     0.2601935     0.3048353     0.3499704     0.3955255     0.4413092     0.4872451     0.5331396     0.5789002     0.6243485     0.6693910     0.7138980     0.7577543     0.8008157     0.8429904     0.8841997     0.9243143     0.9633318     1.0011340     1.0376610     1.0728220     1.1066130     1.1202400     1.0864170     1.0510590     1.0141410     0.9758536     0.9361678     0.8952411     0.8530857     0.8098415     0.7655996     0.7204655     0.6745977     0.6281269     0.5811990     0.5339245     0.4864986     0.4390314     0.3917337     0.3446992     0.2981360     0.2521336     0.2068430     0.1624567     0.1190320     0.0767639     0.0357029    -0.0039366    -0.0420540    -0.0782810    -0.1117625    -0.1336000    -0.1117625    -0.0782810    -0.0420540    -0.0039366     0.0357028     0.0767639     0.1190320     0.1624566     0.2068430     0.2521335     0.2981360     0.3446992     0.3917337     0.4390314     0.4864986     0.5339243     0.5811989     0.6281268     0.6745976     0.7204654     0.7655995     0.8098414     0.8530856     0.8952410     0.9361678     0.9758536     1.0141730     1.0510590     1.0864170     1.1202400     1.1352300     1.1013710
     1.0657970     1.0284840     0.9896280     0.9492070     0.9073870     0.8641908     0.8197701     0.7742297     0.7276898     0.6803251     0.6322832     0.5837277     0.5347877     0.4856773     0.4365257     0.3875626     0.3389007     0.2907665     0.2432673     0.1965714     0.1508867     0.1062859     0.0629772     0.0210231    -0.0193516    -0.0580380    -0.0946611    -0.1283626    -0.1502557    -0.1283626    -0.0946611    -0.0580380    -0.0193517     0.0210230     0.0629771     0.1062859     0.1508867     0.1965714     0.2432673     0.2907665     0.3389008     0.3875626     0.4365257     0.4856773     0.5347876     0.5837275     0.6322830     0.6803250     0.7276897     0.7742296     0.8197700     0.8641907     0.9073870     0.9492069     0.9896279     1.0285160     1.0657970     1.1013710     1.1352300     1.1517180     1.1178200     1.0820080     1.0442610     1.0047790     0.9635491     0.9207466     0.8764055     0.8306909     0.7837222     0.7356361     0.6866248     0.6368546     0.5865090     0.5357372     0.4847739     0.4337696     0.3829747     0.3325228     0.2826606     0.2335152     0.1852733     0.1381606     0.0922662     0.0478128     0.0048764    -0.0363071    -0.0756191    -0.1126780    -0.1466214    -0.1685756    -0.1466214    -0.1126780    -0.0756192    -0.0363071     0.0048763     0.0478128     0.0922661     0.1381606     0.1852733     0.2335151
     0.2826606     0.3325229     0.3829747     0.4337696     0.4847739     0.5357370     0.5865089     0.6368545     0.6866247     0.7356359     0.7837220     0.8306907     0.8764054     0.9207465     0.9635490     1.0047790     1.0442920     1.0820080     1.1178200     1.1517180     1.1698550     1.1359140     1.0998400     1.0616140     1.0214450     0.9793254     0.9354421     0.8898417     0.8427036     0.7941639     0.7443770     0.6935545     0.6418834     0.5895685     0.5367817     0.4837803     0.4307379     0.3779281     0.3255072     0.2737442     0.2227878     0.1728454     0.1241620     0.0768445     0.0311320    -0.0128849    -0.0549580    -0.0949584    -0.1324966    -0.1667060    -0.1887275    -0.1667060    -0.1324966    -0.0949584    -0.0549580    -0.0128850     0.0311320     0.0768444     0.1241619     0.1728454     0.2227878     0.2737442     0.3255073     0.3779281     0.4307380     0.4837803     0.5367815     0.5895683     0.6418832     0.6935543     0.7443768     0.7941638     0.8427035     0.8898416     0.9354420     0.9793254     1.0214440     1.0616460     1.0998400     1.1359140     1.1698550     1.1898060     1.1558180     1.1194550     1.0807040     1.0397770     0.9966797     0.9516075     0.9046218     0.8559180     0.8056500     0.7539921     0.7011773     0.6474150     0.5929340     0.5379306     0.4826872     0.4274030     0.3723766     0.3177898
     0.2639358     0.2109874     0.1591745     0.1087631     0.0598802     0.0127827    -0.0324228    -0.0754745    -0.1162321    -0.1542975    -0.1887996    -0.2108952    -0.1887996    -0.1542976    -0.1162321    -0.0754746    -0.0324229     0.0127826     0.0598801     0.1087630     0.1591744     0.2109874     0.2639359     0.3177899     0.3723766     0.4274030     0.4826872     0.5379304     0.5929338     0.6474149     0.7011771     0.7539920     0.8056498     0.8559179     0.9046217     0.9516074     0.9966797     1.0397770     1.0807350     1.1194550     1.1558180     1.1898060     1.2117520     1.1777130     1.1410320     1.1017030     1.0599440     1.0157700     0.9693899     0.9208803     0.8704541     0.8182850     0.7645690     0.7095626     0.6535000     0.5966361     0.5391944     0.4814849     0.4237345     0.3662699     0.3093005     0.2531465     0.1980067     0.1441361     0.0918239     0.0412191    -0.0074020    -0.0539150    -0.0980431    -0.1396336    -0.1782791    -0.2131031    -0.2352801    -0.2131031    -0.1782791    -0.1396336    -0.0980432    -0.0539150    -0.0074020     0.0412190     0.0918238     0.1441360     0.1980067     0.2531465     0.3093006     0.3662699     0.4237345     0.4814849     0.5391942     0.5966359     0.6534998     0.7095624     0.7645689     0.8182848     0.8704540     0.9208802     0.9693897     1.0157700     1.0599440     1.1017340
     1.1410320     1.1777130     1.2117520     1.2358920     1.2017960     1.1647660     1.1248010     1.0821260     1.0367680     0.9889498     0.9387640     0.8864433     0.8321830     0.7762033     0.7187861     0.6601933     0.6007083     0.5405846     0.4801623     0.4196993     0.3595527     0.2999626     0.2412785     0.1837284     0.1275944     0.0731915     0.0206926    -0.0296044    -0.0775555    -0.1228678    -0.1653744    -0.2046579    -0.2398361    -0.2621026    -0.2398361    -0.2046579    -0.1653744    -0.1228679    -0.0775556    -0.0296044     0.0206925     0.0731914     0.1275944     0.1837284     0.2412786     0.2999626     0.3595527     0.4196993     0.4801623     0.5405844     0.6007081     0.6601930     0.7187859     0.7762031     0.8321828     0.8864431     0.9387639     0.9889497     1.0367680     1.0821260     1.1248320     1.1647660     1.2017960     1.2358920     1.2624480     1.2282890     1.1908750     1.1502100     1.1065280     1.0598680     1.0104670     0.9584370     0.9040321     0.8474715     0.7890015     0.7289324     0.6675562     0.6051879     0.5421138     0.4787074     0.4152604     0.3521635     0.2896904     0.2282233     0.1680216     0.1093978     0.0526949    -0.0018875    -0.0540280    -0.1035613    -0.1501761    -0.1936905    -0.2336758    -0.2692435    -0.2916086    -0.2692435    -0.2336759    -0.1936905    -0.1501762    -0.1035614
    -0.0540281    -0.0018876     0.0526949     0.1093978     0.1680216     0.2282233     0.2896905     0.3521635     0.4152604     0.4787074     0.5421136     0.6051877     0.6675559     0.7289321     0.7890013     0.8474713     0.9040319     0.9584368     1.0104660     1.0598680     1.1065280     1.1502410     1.1908750     1.2282890     1.2624480     1.2916570     1.2574290     1.2195940     1.1781590     1.1333690     1.0852760     1.0341340     0.9800762     0.9233789     0.8642880     0.8030788     0.7400927     0.6756549     0.6101152     0.5437959     0.4771070     0.4103778     0.3440358     0.2783915     0.2138632     0.1507450     0.0893825     0.0301498    -0.0267244    -0.0808927    -0.1321662    -0.1802138    -0.2248367    -0.2655940    -0.3015902    -0.3240636    -0.3015902    -0.2655940    -0.2248367    -0.1802139    -0.1321663    -0.0808928    -0.0267245     0.0301497     0.0893825     0.1507449     0.2138632     0.2783916     0.3440357     0.4103778     0.4771070     0.5437957     0.6101150     0.6756546     0.7400925     0.8030785     0.8642877     0.9233786     0.9800760     1.0341340     1.0852760     1.1333690     1.1781890     1.2195930     1.2574290     1.2916570     1.3237890     1.2894850     1.2511850     1.2089030     1.1628940     1.1132250     1.0601690     1.0038800     0.9446611     0.8827868     0.8185644     0.7523695     0.6845639     0.6155355
     0.5456464     0.4753467     0.4050068     0.3350950     0.2659624     0.1980665     0.1317400     0.0673649     0.0053493    -0.0540460    -0.1104450    -0.1636327    -0.2132564    -0.2590987    -0.3007053    -0.3371728    -0.3597654    -0.3371728    -0.3007053    -0.2590988    -0.2132565    -0.1636328    -0.1104450    -0.0540461     0.0053492     0.0673648     0.1317400     0.1980665     0.2659625     0.3350949     0.4050068     0.4753467     0.5456461     0.6155352     0.6845636     0.7523693     0.8185642     0.8827866     0.9446609     1.0038800     1.0601690     1.1132250     1.1628940     1.2089340     1.2511850     1.2894850     1.3237890     1.3591330     1.3247450     1.2859340     1.2427210     1.1953720     1.1439690     1.0888070     1.0300640     0.9680707     0.9031348     0.8355980     0.7658736     0.6943635     0.6214976     0.5476817     0.4734103     0.3990988     0.3252604     0.2522908     0.1806908     0.1108353     0.0431464    -0.0219303    -0.0840987    -0.1429513    -0.1982447    -0.2496020    -0.2967857    -0.3393263    -0.3763123    -0.3990360    -0.3763123    -0.3393263    -0.2967857    -0.2496021    -0.1982448    -0.1429514    -0.0840989    -0.0219304     0.0431463     0.1108352     0.1806908     0.2522909     0.3252604     0.3990989     0.4734103     0.5476814     0.6214973     0.6943632     0.7658733     0.8355977     0.9031345     0.9680705
     1.0300630     1.0888060     1.1439690     1.1953720     1.2427510     1.2859340     1.3247450     1.3591330     1.3980110     1.3635320     1.3241590     1.2799210     1.2310970     1.1777880     1.1203080     1.0588660     0.9938217     0.9255180     0.8543352     0.7807283     0.7051432     0.6280560     0.5499206     0.4712802     0.3926000     0.3144422     0.2372518     0.1615771     0.0878397     0.0165056    -0.0519383    -0.1171572    -0.1787089    -0.2363185    -0.2895828    -0.3382419    -0.3818101    -0.4193664    -0.4422344    -0.4193664    -0.3818101    -0.3382420    -0.2895829    -0.2363186    -0.1787089    -0.1171574    -0.0519385     0.0165055     0.0878396     0.1615772     0.2372519     0.3144422     0.3926001     0.4712802     0.5499203     0.6280556     0.7051428     0.7807279     0.8543350     0.9255177     0.9938215     1.0588660     1.1203080     1.1777880     1.2310970     1.2799510     1.3241590     1.3635320     1.3980110     1.4407780     1.4061980     1.3662060     1.3208420     1.2703960     1.2149890     1.1549610     1.0905490     1.0221480     0.9501398     0.8749465     0.7970687     0.7170010     0.6352703     0.5523835     0.4689371     0.3854512     0.3025420     0.2207086     0.1405518     0.0625442    -0.0127998    -0.0849477    -0.1535221    -0.2180428    -0.2782003    -0.3335624    -0.3838446    -0.4285430    -0.4667268    -0.4897534
    -0.4667268    -0.4285430    -0.3838446    -0.3335625    -0.2782004    -0.2180428    -0.1535223    -0.0849479    -0.0127999     0.0625441     0.1405519     0.2207088     0.3025420     0.3854513     0.4689371     0.5523831     0.6352699     0.7170005     0.7970683     0.8749462     0.9501395     1.0221480     1.0905490     1.1549610     1.2149890     1.2703960     1.3208720     1.3662060     1.4061980     1.4407780     1.4878210     1.4531300     1.4124580     1.3658540     1.3136230     1.2559090     1.1930780     1.1254000     1.0533070     0.9772233     0.8976185     0.8150428     0.7300443     0.6432059     0.5550926     0.4663598     0.3775876     0.2894520     0.2025115     0.1174244     0.0347196    -0.0450351    -0.1212573    -0.1935228    -0.2613093    -0.3242694    -0.3819390    -0.4340065    -0.4799482    -0.5188221    -0.5420232    -0.5188221    -0.4799483    -0.4340065    -0.3819391    -0.3242696    -0.2613093    -0.1935230    -0.1212575    -0.0450352     0.0347195     0.1174245     0.2025116     0.2894520     0.3775877     0.4663598     0.5550921     0.6432055     0.7300439     0.8150424     0.8976181     0.9772229     1.0533070     1.1253990     1.1930780     1.2559090     1.3136230     1.3658840     1.4124580     1.4531300     1.4878210     1.5395680     1.5047550     1.4633340     1.4153670     1.3611730     1.3009210     1.2350060     1.1637350     1.0875810
     1.0070150     0.9225575     0.8348141     0.7443919     0.6519350     0.5580725     0.4635247     0.3689378     0.2750532     0.1824948     0.0919845     0.0041129    -0.0804936    -0.1611975    -0.2375232    -0.3089020    -0.3749450    -0.4351529    -0.4891841    -0.5364935    -0.5761265    -0.5995196    -0.5761265    -0.5364935    -0.4891842    -0.4351530    -0.3749452    -0.3089021    -0.2375233    -0.1611977    -0.0804936     0.0041128     0.0919845     0.1824950     0.2750531     0.3689379     0.4635247     0.5580720     0.6519346     0.7443914     0.8348137     0.9225571     1.0070150     1.0875810     1.1637350     1.2350060     1.3009210     1.3611730     1.4153970     1.4633340     1.5047550     1.5395680     1.5964900     1.5615420     1.5192990     1.4698320     1.4134790     1.3504350     1.2811280     1.2059040     1.1252830     1.0397860     0.9499907     0.8565629     0.7601744     0.6615372     0.5613506     0.4604061     0.3594229     0.2592143     0.1604763     0.0640003    -0.0295549    -0.1194983    -0.2051322    -0.2859240    -0.3612545    -0.4306887    -0.4936887    -0.5498802    -0.5986940    -0.6391619    -0.6627663    -0.6391619    -0.5986940    -0.5498803    -0.4936888    -0.4306889    -0.3612546    -0.2859242    -0.2051325    -0.1194984    -0.0295550     0.0640003     0.1604764     0.2592143     0.3594230     0.4604061     0.5613500     0.6615367
     0.7601739     0.8565624     0.9499902     1.0397860     1.1252830     1.2059040     1.2811280     1.3504350     1.4134790     1.4698610     1.5192990     1.5615420     1.5964900     1.6591040     1.6240090     1.5808600     1.5297430     1.4710150     1.4049010     1.3318620     1.2522910     1.1667560     1.0758350     0.9801672     0.8804865     0.7775352     0.6720996     0.5649563     0.4569756     0.3489564     0.2417914     0.1362557     0.0332175    -0.0665897    -0.1624038    -0.2534607    -0.3391653    -0.4188427    -0.4920072    -0.5580785    -0.6166463    -0.6671149    -0.7085013    -0.7323380    -0.7085013    -0.6671149    -0.6166463    -0.5580786    -0.4920074    -0.4188428    -0.3391655    -0.2534610    -0.1624039    -0.0665898     0.0332175     0.1362559     0.2417913     0.3489566     0.4569756     0.5649557     0.6720990     0.7775346     0.8804860     0.9801667     1.0758340     1.1667550     1.2522900     1.3318620     1.4049000     1.4710150     1.5297720     1.5808600     1.6240090     1.6591040     1.7279810     1.6927230     1.6485790     1.5956460     1.5343060     1.4648130     1.3876700     1.3033160     1.2123760     1.1154880     1.0133620     0.9068028     0.7966322     0.6837183     0.5689228     0.4532020     0.3374432     0.2226261     0.1096128    -0.0006439    -0.1073283    -0.2096002    -0.3066224    -0.3977312    -0.4821901    -0.5594581